                         Program Version 6.1.0-f.0  -   RELEASE   -
|  1> ! B3LYP def2-SVP D3BJ TIGHTSCF OPT FREQ
|  2> * xyz 0 1
|  3> O   0.000000   0.000000   0.117300
|  4> H   0.000000   0.757200  -0.469200
|  5> H   0.000000  -0.757200  -0.469200
|  6> *
|  7>
|  8>                          ****END OF INPUT****
 Total Charge           Charge          ....    0
 Multiplicity           Mult            ....    1
 Number of Electrons    NEL             ....   10
Dispersion correction           -0.000573876
FINAL SINGLE POINT ENERGY       -76.321663220442
Dispersion correction             ... done (  0.0 sec)
Dispersion correction           -0.000573900
FINAL SINGLE POINT ENERGY       -76.321824945865
Dispersion correction             ... done (  0.0 sec)
Dispersion correction           -0.000573928
FINAL SINGLE POINT ENERGY       -76.321840031994
Dispersion correction             ... done (  0.0 sec)
Dispersion correction           -0.000573950
FINAL SINGLE POINT ENERGY       -76.321837683101
Dispersion correction             ... done (  0.0 sec)
                    ***********************HURRAY********************

CARTESIAN COORDINATES (ANGSTROEM)
---------------------------------
  O      0.000000    0.000000    0.127235
  H      0.000000    0.757135   -0.474168
  H      0.000000   -0.757135   -0.474168

 Multiplicity           Mult            ....    1
 Number of Electrons    NEL             ....   10
 Basis Dimension        Dim             ....   24

ORBITAL ENERGIES
----------------

  NO   OCC          E(Eh)            E(eV)
   0   2.0000     -19.116108      -520.1758
   1   2.0000      -0.976139       -26.5621
   2   2.0000      -0.508028       -13.8242
   3   2.0000      -0.364392        -9.9156
   4   2.0000      -0.288148        -7.8409
   5   0.0000       0.047711         1.2983
   6   0.0000       0.126619         3.4455
   7   0.0000       0.558291        15.1919
   8   0.0000       0.623850        16.9758
   9   0.0000       0.920749        25.0549

MULLIKEN ATOMIC CHARGES
-----------------------
   0 O :   -0.293610
   1 H :    0.146805
   2 H :    0.146805
Sum of atomic charges:    0.0000000

LOEWDIN ATOMIC CHARGES
----------------------
   0 O :   -0.150140
   1 H :    0.075070
   2 H :    0.075070

  Mayer bond orders larger than 0.100000
B(  0-O ,  1-H ) :   1.0081 B(  0-O ,  2-H ) :   1.0081

Dispersion correction           -0.000573950
FINAL SINGLE POINT ENERGY       -76.321842967418

DIPOLE MOMENT
-------------

Method             : SCF
Type of density    : Electron Density
Multiplicity       :   1
Irrep              :   0
Energy             :   -76.3212690175983681 Eh
Basis              : AO
                                X                 Y                 Z
Electronic contribution:      0.000000000       0.000000010       0.212713237
Nuclear contribution   :      0.000000000      -0.000000021      -1.001168536
                        -----------------------------------------
Total Dipole Moment    :      0.000000000      -0.000000011      -0.788455299
                        -----------------------------------------
Magnitude (a.u.)       :      0.788455299
Magnitude (Debye)      :      2.004094101

VIBRATIONAL FREQUENCIES
-----------------------

Scaling factor for frequencies =  1.000000000  (already applied!)

     0:       0.00 cm**-1
     1:       0.00 cm**-1
     2:       0.00 cm**-1
     3:       0.00 cm**-1
     4:       0.00 cm**-1
     5:       0.00 cm**-1
     6:    1637.68 cm**-1
     7:    3786.99 cm**-1
     8:    3881.94 cm**-1

IR SPECTRUM
-----------

 Mode   freq       eps      Int      T**2         TX        TY        TZ
       cm**-1   L/(mol*cm) km/mol    a.u.
----------------------------------------------------------------------------
  6:   1637.68   0.010942   55.30  0.002085  ( 0.000000  0.000000  0.045662)
  7:   3786.99   0.000924    4.67  0.000076  (-0.000000  0.000000  0.008727)
  8:   3881.94   0.005244   26.50  0.000422  ( 0.000000 -0.020532  0.000000)

--------------------------
THERMOCHEMISTRY AT 298.15K
--------------------------

Temperature         ...   298.15 K
Pressure            ...     1.00 atm
Total Mass          ...    18.02 AMU
Quasi RRHO          ...     True
Cut-Off Frequency   ...     1.00 cm^-1

Throughout the following assumptions are being made:
  (1) The electronic state is orbitally nondegenerate
  (2) There are no thermally accessible electronically excited states
  (3) Hindered rotations indicated by low frequency modes are not
      treated as such but are treated as vibrations and this may
      cause some error
  (4) All equations used are the standard statistical mechanics
      equations for an ideal gas
  (5) All vibrations are strictly harmonic

freq.    1637.68  E(vib)   ...       0.00
freq.    3786.99  E(vib)   ...       0.00
freq.    3881.94  E(vib)   ...       0.00

------------
INNER ENERGY
------------

The inner energy is: U= E(el) + E(ZPE) + E(vib) + E(rot) + E(trans)
    E(el)   - is the total energy from the electronic structure calculation
              = E(kin-el) + E(nuc-el) + E(el-el) + E(nuc-nuc)
    E(ZPE)  - the the zero temperature vibrational energy from the frequency calculation
    E(vib)  - the the finite temperature correction to E(ZPE) due to population
              of excited vibrational states
    E(rot)  - is the rotational thermal energy
    E(trans)- is the translational thermal energy

Summary of contributions to the inner energy U:
Electronic energy                ...    -76.32184297 Eh
Zero point energy                ...      0.02120201 Eh      13.30 kcal/mol
Thermal vibrational correction   ...      0.00000276 Eh       0.00 kcal/mol
Thermal rotational correction    ...      0.00141627 Eh       0.89 kcal/mol
Thermal translational correction ...      0.00141627 Eh       0.89 kcal/mol
-----------------------------------------------------------------------
Total thermal energy                    -76.29780565 Eh

Summary of corrections to the electronic energy:
(perhaps to be used in another calculation)
Total thermal correction                  0.00283530 Eh       1.78 kcal/mol
Non-thermal (ZPE) correction              0.02120201 Eh      13.30 kcal/mol
-----------------------------------------------------------------------
Total correction                          0.02403732 Eh      15.08 kcal/mol

--------
ENTHALPY
--------

The enthalpy is H = U + kB*T
                kB is Boltzmann's constant
Total thermal energy              ...    -76.29780565 Eh
Thermal Enthalpy correction       ...      0.00094421 Eh       0.59 kcal/mol
-----------------------------------------------------------------------
Total Enthalpy                    ...    -76.29686144 Eh

Note: Rotational entropy computed according to Herzberg
Infrared and Raman Spectra, Chapter V,1, Van Nostrand Reinhold, 1945
Point Group:  C2v, Symmetry Number:   2
Rotational constants in cm-1:    26.032536    14.586775     9.348527

Vibrational entropy computed according to the QRRHO of S. Grimme
Chem.Eur.J. 2012 18 9955 using a reference frequency of 100.0 cm-1

-------
ENTROPY
-------

The entropy contributions are T*S = T*(S(el)+S(vib)+S(rot)+S(trans))
     S(el)   - electronic entropy
     S(vib)  - vibrational entropy
     S(rot)  - rotational entropy
     S(trans)- translational entropy
The entropies will be listed as multiplied by the temperature to get
units of energy

Electronic entropy                ...      0.00000000 Eh      0.00 kcal/mol
Vibrational entropy               ...      0.00000311 Eh      0.00 kcal/mol
Rotational entropy                ...      0.00499716 Eh      3.14 kcal/mol
Translational entropy             ...      0.01644380 Eh     10.32 kcal/mol
-----------------------------------------------------------------------
Final entropy term                ...      0.02144408 Eh     13.46 kcal/mol

In case the symmetry of your molecule has not been determined correctly
or in case you have a reason to use a different symmetry number we print
out the resulting rotational entropy values for sn=1,12:

 non-linear molecules -----------------------------------
|  sn= 1 | S(rot)=       0.00565162 Eh      3.55 kcal/mol|
|  sn= 2 | S(rot)=       0.00499716 Eh      3.14 kcal/mol|
|  sn= 3 | S(rot)=       0.00461433 Eh      2.90 kcal/mol|
|  sn= 4 | S(rot)=       0.00434271 Eh      2.73 kcal/mol|
|  sn= 5 | S(rot)=       0.00413202 Eh      2.59 kcal/mol|
|  sn= 6 | S(rot)=       0.00395988 Eh      2.48 kcal/mol|
|  sn= 7 | S(rot)=       0.00381433 Eh      2.39 kcal/mol|
|  sn= 8 | S(rot)=       0.00368825 Eh      2.31 kcal/mol|
|  sn= 9 | S(rot)=       0.00357704 Eh      2.24 kcal/mol|
|  sn=10 | S(rot)=       0.00347756 Eh      2.18 kcal/mol|
|  sn=11 | S(rot)=       0.00338757 Eh      2.13 kcal/mol|
|  sn=12 | S(rot)=       0.00330542 Eh      2.07 kcal/mol|
 linear molecules ---------------------------------------
|  Dinfh | S(rot)=       0.00321536 Eh      2.02 kcal/mol|
|  Cinfv | S(rot)=       0.00386981 Eh      2.43 kcal/mol|
 --------------------------------------------------------

-------------------
GIBBS FREE ENERGY
-------------------

The Gibbs free energy is G = H - T*S

Total enthalpy                    ...    -76.29686144 Eh
Total entropy correction          ...     -0.02144408 Eh    -13.46 kcal/mol
-----------------------------------------------------------------------
Final Gibbs free energy         ...    -76.31830552 Eh

For completeness - the Gibbs free energy minus the electronic energy
G-E(el)                           ...      0.00353745 Eh      2.22 kcal/mol

                             ****ORCA TERMINATED NORMALLY****
TOTAL RUN TIME: 0 days 0 hours 0 minutes 9 seconds 827 msec
